REMARK  2 active torsions:
REMARK  status: ('A' for Active; 'I' for Inactive)
REMARK    1  A    between atoms: O_1  and  C_9 
REMARK    2  A    between atoms: N_3  and  C_4 
REMARK       I    between atoms: N_3  and  C_10 
ROOT
HETATM    1  C   UNK N   1      -0.216  -0.389  -0.002  0.00  0.00     0.034 A 
HETATM    2  C   UNK N   1       0.241   0.951  -0.000  0.00  0.00     0.032 A 
HETATM    3  C   UNK N   1       0.743  -1.422  -0.002  0.00  0.00     0.032 A 
HETATM    4  C   UNK N   1       1.608   1.230   0.001  0.00  0.00     0.039 A 
HETATM    5  C   UNK N   1       2.108  -1.134  -0.001  0.00  0.00     0.039 A 
HETATM    6  C   UNK N   1       2.545   0.192   0.000  0.00  0.00     0.065 A 
ENDROOT
BRANCH   1   7
HETATM    7  N   UNK N   1      -1.603  -0.766  -0.003  0.00  0.00    -0.328 N 
HETATM    8  C   UNK N   1      -2.688   0.065   0.003  0.00  0.00     0.218 C 
HETATM    9  O   UNK N   1      -2.579   1.277   0.012  0.00  0.00    -0.274 OA
HETATM   10  C   UNK N   1      -4.055  -0.540   0.001  0.00  0.00     0.117 C 
HETATM   11  H   UNK N   1      -1.802  -1.778  -0.007  0.00  0.00     0.169 HD
ENDBRANCH   1   7
BRANCH   6  12
HETATM   12  O   UNK N   1       3.864   0.463   0.001  0.00  0.00    -0.361 OA
HETATM   13  H   UNK N   1       4.190   1.374   0.002  0.00  0.00     0.217 HD
ENDBRANCH   6  12
TORSDOF 2
