MODEL 1
REMARK VINA RESULT:      -5.4      0.000      0.000
REMARK  2 active torsions:
REMARK  status: ('A' for Active; 'I' for Inactive)
REMARK    1  A    between atoms: O_1  and  C_9 
REMARK    2  A    between atoms: N_3  and  C_4 
REMARK       I    between atoms: N_3  and  C_10 
ROOT
HETATM    1  C   UNK N   1     -18.958  15.220 -27.088  0.00  0.00     0.034 A 
HETATM    2  C   UNK N   1     -18.199  14.261 -27.801  0.00  0.00     0.032 A 
HETATM    3  C   UNK N   1     -20.302  14.919 -26.788  0.00  0.00     0.032 A 
HETATM    4  C   UNK N   1     -18.777  13.053 -28.193  0.00  0.00     0.039 A 
HETATM    5  C   UNK N   1     -20.872  13.709 -27.183  0.00  0.00     0.039 A 
HETATM    6  C   UNK N   1     -20.113  12.772 -27.887  0.00  0.00     0.065 A 
ENDROOT
BRANCH   1   7
HETATM    7  N   UNK N   1     -18.444  16.487 -26.647  0.00  0.00    -0.328 N 
HETATM    8  C   UNK N   1     -18.396  17.655 -27.356  0.00  0.00     0.218 C 
HETATM    9  O   UNK N   1     -18.807  17.739 -28.499  0.00  0.00    -0.274 OA
HETATM   10  C   UNK N   1     -17.814  18.867 -26.703  0.00  0.00     0.117 C 
HETATM   11  H   UNK N   1     -18.066  16.519 -25.688  0.00  0.00     0.169 HD
ENDBRANCH   1   7
BRANCH   6  12
HETATM   12  O   UNK N   1     -20.669  11.606 -28.265  0.00  0.00    -0.361 OA
HETATM   13  H   UNK N   1     -21.419  11.581 -28.876  0.00  0.00     0.217 HD
ENDBRANCH   6  12
TORSDOF 2
ENDMDL
MODEL 2
REMARK VINA RESULT:      -5.4      0.096      1.463
REMARK  2 active torsions:
REMARK  status: ('A' for Active; 'I' for Inactive)
REMARK    1  A    between atoms: O_1  and  C_9 
REMARK    2  A    between atoms: N_3  and  C_4 
REMARK       I    between atoms: N_3  and  C_10 
ROOT
HETATM    1  C   UNK N   1     -19.074  15.284 -27.061  0.00  0.00     0.034 A 
HETATM    2  C   UNK N   1     -20.418  14.938 -26.782  0.00  0.00     0.032 A 
HETATM    3  C   UNK N   1     -18.277  14.356 -27.761  0.00  0.00     0.032 A 
HETATM    4  C   UNK N   1     -20.930  13.707 -27.194  0.00  0.00     0.039 A 
HETATM    5  C   UNK N   1     -18.797  13.127 -28.169  0.00  0.00     0.039 A 
HETATM    6  C   UNK N   1     -20.124  12.799 -27.887  0.00  0.00     0.065 A 
ENDROOT
BRANCH   1   7
HETATM    7  N   UNK N   1     -18.466  16.528 -26.675  0.00  0.00    -0.328 N 
HETATM    8  C   UNK N   1     -18.426  17.689 -27.394  0.00  0.00     0.218 C 
HETATM    9  O   UNK N   1     -18.929  17.789 -28.497  0.00  0.00    -0.274 OA
HETATM   10  C   UNK N   1     -17.736  18.876 -26.801  0.00  0.00     0.117 C 
HETATM   11  H   UNK N   1     -18.007  16.546 -25.751  0.00  0.00     0.169 HD
ENDBRANCH   1   7
BRANCH   6  12
HETATM   12  O   UNK N   1     -20.619  11.611 -28.284  0.00  0.00    -0.361 OA
HETATM   13  H   UNK N   1     -20.863  10.929 -27.643  0.00  0.00     0.217 HD
ENDBRANCH   6  12
TORSDOF 2
ENDMDL
MODEL 3
REMARK VINA RESULT:      -5.0      2.721      2.843
REMARK  2 active torsions:
REMARK  status: ('A' for Active; 'I' for Inactive)
REMARK    1  A    between atoms: O_1  and  C_9 
REMARK    2  A    between atoms: N_3  and  C_4 
REMARK       I    between atoms: N_3  and  C_10 
ROOT
HETATM    1  C   UNK N   1     -19.788  14.738 -25.413  0.00  0.00     0.034 A 
HETATM    2  C   UNK N   1     -18.707  13.824 -25.435  0.00  0.00     0.032 A 
HETATM    3  C   UNK N   1     -20.562  14.885 -26.582  0.00  0.00     0.032 A 
HETATM    4  C   UNK N   1     -18.424  13.093 -26.589  0.00  0.00     0.039 A 
HETATM    5  C   UNK N   1     -20.272  14.151 -27.732  0.00  0.00     0.039 A 
HETATM    6  C   UNK N   1     -19.202  13.253 -27.740  0.00  0.00     0.065 A 
ENDROOT
BRANCH   1   7
HETATM    7  N   UNK N   1     -20.149  15.530 -24.269  0.00  0.00    -0.328 N 
HETATM    8  C   UNK N   1     -19.430  16.544 -23.702  0.00  0.00     0.218 C 
HETATM    9  O   UNK N   1     -18.348  16.896 -24.136  0.00  0.00    -0.274 OA
HETATM   10  C   UNK N   1     -19.993  17.242 -22.507  0.00  0.00     0.117 C 
HETATM   11  H   UNK N   1     -21.052  15.306 -23.825  0.00  0.00     0.169 HD
ENDBRANCH   1   7
BRANCH   6  12
HETATM   12  O   UNK N   1     -18.928  12.547 -28.853  0.00  0.00    -0.361 OA
HETATM   13  H   UNK N   1     -18.083  12.089 -28.963  0.00  0.00     0.217 HD
ENDBRANCH   6  12
TORSDOF 2
ENDMDL
MODEL 4
REMARK VINA RESULT:      -4.8      3.573      5.132
REMARK  2 active torsions:
REMARK  status: ('A' for Active; 'I' for Inactive)
REMARK    1  A    between atoms: O_1  and  C_9 
REMARK    2  A    between atoms: N_3  and  C_4 
REMARK       I    between atoms: N_3  and  C_10 
ROOT
HETATM    1  C   UNK N   1     -19.190  14.455 -25.107  0.00  0.00     0.034 A 
HETATM    2  C   UNK N   1     -19.969  15.615 -24.878  0.00  0.00     0.032 A 
HETATM    3  C   UNK N   1     -18.619  13.804 -23.995  0.00  0.00     0.032 A 
HETATM    4  C   UNK N   1     -20.158  16.093 -23.581  0.00  0.00     0.039 A 
HETATM    5  C   UNK N   1     -18.814  14.289 -22.701  0.00  0.00     0.039 A 
HETATM    6  C   UNK N   1     -19.583  15.435 -22.490  0.00  0.00     0.065 A 
ENDROOT
BRANCH   1   7
HETATM    7  N   UNK N   1     -18.944  13.894 -26.407  0.00  0.00    -0.328 N 
HETATM    8  C   UNK N   1     -19.860  13.346 -27.260  0.00  0.00     0.218 C 
HETATM    9  O   UNK N   1     -21.044  13.273 -26.985  0.00  0.00    -0.274 OA
HETATM   10  C   UNK N   1     -19.388  12.816 -28.576  0.00  0.00     0.117 C 
HETATM   11  H   UNK N   1     -17.966  13.905 -26.733  0.00  0.00     0.169 HD
ENDBRANCH   1   7
BRANCH   6  12
HETATM   12  O   UNK N   1     -19.767  15.898 -21.239  0.00  0.00    -0.361 OA
HETATM   13  H   UNK N   1     -19.407  15.430 -20.472  0.00  0.00     0.217 HD
ENDBRANCH   6  12
TORSDOF 2
ENDMDL
MODEL 5
REMARK VINA RESULT:      -4.6      5.111      5.724
REMARK  2 active torsions:
REMARK  status: ('A' for Active; 'I' for Inactive)
REMARK    1  A    between atoms: O_1  and  C_9 
REMARK    2  A    between atoms: N_3  and  C_4 
REMARK       I    between atoms: N_3  and  C_10 
ROOT
HETATM    1  C   UNK N   1     -19.339  14.766 -22.916  0.00  0.00     0.034 A 
HETATM    2  C   UNK N   1     -18.045  14.196 -22.972  0.00  0.00     0.032 A 
HETATM    3  C   UNK N   1     -20.076  14.635 -21.722  0.00  0.00     0.032 A 
HETATM    4  C   UNK N   1     -17.522  13.523 -21.867  0.00  0.00     0.039 A 
HETATM    5  C   UNK N   1     -19.546  13.961 -20.622  0.00  0.00     0.039 A 
HETATM    6  C   UNK N   1     -18.268  13.403 -20.690  0.00  0.00     0.065 A 
ENDROOT
BRANCH   1   7
HETATM    7  N   UNK N   1     -19.954  15.474 -24.006  0.00  0.00    -0.328 N 
HETATM    8  C   UNK N   1     -20.173  15.016 -25.274  0.00  0.00     0.218 C 
HETATM    9  O   UNK N   1     -19.848  13.897 -25.627  0.00  0.00    -0.274 OA
HETATM   10  C   UNK N   1     -20.833  15.924 -26.262  0.00  0.00     0.117 C 
HETATM   11  H   UNK N   1     -20.263  16.438 -23.808  0.00  0.00     0.169 HD
ENDBRANCH   1   7
BRANCH   6  12
HETATM   12  O   UNK N   1     -17.762  12.754 -19.625  0.00  0.00    -0.361 OA
HETATM   13  H   UNK N   1     -16.837  12.860 -19.364  0.00  0.00     0.217 HD
ENDBRANCH   6  12
TORSDOF 2
ENDMDL
MODEL 6
REMARK VINA RESULT:      -4.6      4.091      4.943
REMARK  2 active torsions:
REMARK  status: ('A' for Active; 'I' for Inactive)
REMARK    1  A    between atoms: O_1  and  C_9 
REMARK    2  A    between atoms: N_3  and  C_4 
REMARK       I    between atoms: N_3  and  C_10 
ROOT
HETATM    1  C   UNK N   1     -18.775  14.254 -24.131  0.00  0.00     0.034 A 
HETATM    2  C   UNK N   1     -19.771  15.235 -24.353  0.00  0.00     0.032 A 
HETATM    3  C   UNK N   1     -18.425  13.403 -25.198  0.00  0.00     0.032 A 
HETATM    4  C   UNK N   1     -20.385  15.347 -25.602  0.00  0.00     0.039 A 
HETATM    5  C   UNK N   1     -19.043  13.522 -26.443  0.00  0.00     0.039 A 
HETATM    6  C   UNK N   1     -20.025  14.493 -26.649  0.00  0.00     0.065 A 
ENDROOT
BRANCH   1   7
HETATM    7  N   UNK N   1     -18.094  14.069 -22.879  0.00  0.00    -0.328 N 
HETATM    8  C   UNK N   1     -18.633  13.650 -21.695  0.00  0.00     0.218 C 
HETATM    9  O   UNK N   1     -19.814  13.379 -21.578  0.00  0.00    -0.274 OA
HETATM   10  C   UNK N   1     -17.739  13.525 -20.504  0.00  0.00     0.117 C 
HETATM   11  H   UNK N   1     -17.084  14.277 -22.873  0.00  0.00     0.169 HD
ENDBRANCH   1   7
BRANCH   6  12
HETATM   12  O   UNK N   1     -20.618  14.603 -27.853  0.00  0.00    -0.361 OA
HETATM   13  H   UNK N   1     -20.132  14.925 -28.625  0.00  0.00     0.217 HD
ENDBRANCH   6  12
TORSDOF 2
ENDMDL
MODEL 7
REMARK VINA RESULT:      -4.6      2.684      5.071
REMARK  2 active torsions:
REMARK  status: ('A' for Active; 'I' for Inactive)
REMARK    1  A    between atoms: O_1  and  C_9 
REMARK    2  A    between atoms: N_3  and  C_4 
REMARK       I    between atoms: N_3  and  C_10 
ROOT
HETATM    1  C   UNK N   1     -19.856  15.107 -25.839  0.00  0.00     0.034 A 
HETATM    2  C   UNK N   1     -19.876  14.969 -24.430  0.00  0.00     0.032 A 
HETATM    3  C   UNK N   1     -19.286  16.273 -26.389  0.00  0.00     0.032 A 
HETATM    4  C   UNK N   1     -19.343  15.969 -23.616  0.00  0.00     0.039 A 
HETATM    5  C   UNK N   1     -18.756  17.268 -25.567  0.00  0.00     0.039 A 
HETATM    6  C   UNK N   1     -18.783  17.120 -24.179  0.00  0.00     0.065 A 
ENDROOT
BRANCH   1   7
HETATM    7  N   UNK N   1     -20.382  14.128 -26.751  0.00  0.00    -0.328 N 
HETATM    8  C   UNK N   1     -19.681  13.186 -27.451  0.00  0.00     0.218 C 
HETATM    9  O   UNK N   1     -18.472  13.079 -27.366  0.00  0.00    -0.274 OA
HETATM   10  C   UNK N   1     -20.429  12.258 -28.352  0.00  0.00     0.117 C 
HETATM   11  H   UNK N   1     -21.403  14.138 -26.895  0.00  0.00     0.169 HD
ENDBRANCH   1   7
BRANCH   6  12
HETATM   12  O   UNK N   1     -18.269  18.084 -23.392  0.00  0.00    -0.361 OA
HETATM   13  H   UNK N   1     -18.840  18.657 -22.861  0.00  0.00     0.217 HD
ENDBRANCH   6  12
TORSDOF 2
ENDMDL
MODEL 8
REMARK VINA RESULT:      -4.5      5.282      7.539
REMARK  2 active torsions:
REMARK  status: ('A' for Active; 'I' for Inactive)
REMARK    1  A    between atoms: O_1  and  C_9 
REMARK    2  A    between atoms: N_3  and  C_4 
REMARK       I    between atoms: N_3  and  C_10 
ROOT
HETATM    1  C   UNK N   1     -18.340  20.846 -26.464  0.00  0.00     0.034 A 
HETATM    2  C   UNK N   1     -18.332  22.109 -25.824  0.00  0.00     0.032 A 
HETATM    3  C   UNK N   1     -17.189  20.040 -26.366  0.00  0.00     0.032 A 
HETATM    4  C   UNK N   1     -17.206  22.535 -25.119  0.00  0.00     0.039 A 
HETATM    5  C   UNK N   1     -16.067  20.473 -25.658  0.00  0.00     0.039 A 
HETATM    6  C   UNK N   1     -16.072  21.721 -25.033  0.00  0.00     0.065 A 
ENDROOT
BRANCH   1   7
HETATM    7  N   UNK N   1     -19.455  20.330 -27.210  0.00  0.00    -0.328 N 
HETATM    8  C   UNK N   1     -20.528  19.637 -26.724  0.00  0.00     0.218 C 
HETATM    9  O   UNK N   1     -20.651  19.372 -25.543  0.00  0.00    -0.274 OA
HETATM   10  C   UNK N   1     -21.585  19.188 -27.682  0.00  0.00     0.117 C 
HETATM   11  H   UNK N   1     -19.443  20.500 -28.227  0.00  0.00     0.169 HD
ENDBRANCH   1   7
BRANCH   6  12
HETATM   12  O   UNK N   1     -14.986  22.133 -24.352  0.00  0.00    -0.361 OA
HETATM   13  H   UNK N   1     -14.389  22.803 -24.714  0.00  0.00     0.217 HD
ENDBRANCH   6  12
TORSDOF 2
ENDMDL
MODEL 9
REMARK VINA RESULT:      -4.5      3.122      6.972
REMARK  2 active torsions:
REMARK  status: ('A' for Active; 'I' for Inactive)
REMARK    1  A    between atoms: O_1  and  C_9 
REMARK    2  A    between atoms: N_3  and  C_4 
REMARK       I    between atoms: N_3  and  C_10 
ROOT
HETATM    1  C   UNK N   1     -17.702  19.595 -26.404  0.00  0.00     0.034 A 
HETATM    2  C   UNK N   1     -16.361  19.978 -26.159  0.00  0.00     0.032 A 
HETATM    3  C   UNK N   1     -18.733  20.429 -25.927  0.00  0.00     0.032 A 
HETATM    4  C   UNK N   1     -16.079  21.153 -25.461  0.00  0.00     0.039 A 
HETATM    5  C   UNK N   1     -18.442  21.602 -25.230  0.00  0.00     0.039 A 
HETATM    6  C   UNK N   1     -17.115  21.968 -24.994  0.00  0.00     0.065 A 
ENDROOT
BRANCH   1   7
HETATM    7  N   UNK N   1     -18.081  18.404 -27.114  0.00  0.00    -0.328 N 
HETATM    8  C   UNK N   1     -18.469  17.208 -26.578  0.00  0.00     0.218 C 
HETATM    9  O   UNK N   1     -18.532  17.024 -25.377  0.00  0.00    -0.274 OA
HETATM   10  C   UNK N   1     -18.824  16.089 -27.504  0.00  0.00     0.117 C 
HETATM   11  H   UNK N   1     -18.057  18.458 -28.144  0.00  0.00     0.169 HD
ENDBRANCH   1   7
BRANCH   6  12
HETATM   12  O   UNK N   1     -16.842  23.101 -24.320  0.00  0.00    -0.361 OA
HETATM   13  H   UNK N   1     -17.105  23.966 -24.664  0.00  0.00     0.217 HD
ENDBRANCH   6  12
TORSDOF 2
ENDMDL
